LAMMPS data file via write_data, version 22 Jul 2025, timestep = 452824, units = metal

26244 atoms
2 atom types

0.5498925773015841 85.64053105029743 xlo xhi
0.4762209412989975 74.16687548319739 ylo yhi
3.1172080074282604 77.15255599257125 zlo zhi
-42.54531923649833 0 0 xy xz yz

Masses

1 95.94
2 32.065

Atoms # atomic

46 2 0.5498039440791673 2.296015302359902 4.635098174035255 0 0 0
47 2 -1.025948605930899 5.025298874738284 4.6350982693700935 0 0 0
48 2 -2.601701132756623 7.754582402951108 4.635098373433734 0 0 0
1 1 2.1255564784958594 1.3862540561841212 6.2023396499385 0 0 0
2 1 0.5498039481261099 4.115537612785658 6.202339707956538 0 0 0
3 1 -1.0259485736032357 6.8448211520652675 6.202339823016821 0 0 0
50 2 2.1255565549444726 5.025298820560426 4.635098313936291 0 0 0
51 2 0.5498040178489303 7.754582362297637 4.635098403457141 0 0 0
6 1 2.125556557845939 6.84482112888364 6.202339862651792 0 0 0
487 1 -2.6017011014427673 9.574104684016438 6.2023399458709 0 0 0
490 1 0.549804036461846 9.574104636072315 6.202339986249083 0 0 0
100 2 10.004319535935615 2.2960153041478053 4.635098855919073 0 0 0
101 2 8.428566964882501 5.025298761632206 4.635098747021628 0 0 0
53 2 5.2770617544285034 5.025298803863633 4.635098468172479 0 0 0
102 2 6.852814418919458 7.754582309617517 4.635098672589744 0 0 0
7 1 8.428566795412445 1.3862540749575312 6.2023401022917675 0 0 0
4 1 5.2770616284946765 1.3862540088504176 6.202339812585977 0 0 0
9 1 5.277061708862465 6.844821126384943 6.202339997610924 0 0 0
49 2 3.7013091372246674 2.2960152360940462 4.63509830026082 0 0 0
493 1 3.701309167549759 9.574104643453568 6.202340037229283 0 0 0
52 2 6.852814321165265 2.2960152307338726 4.635098538495352 0 0 0
5 1 3.7013090748391497 4.115537579476605 6.202339802698882 0 0 0
54 2 3.7013092014788027 7.754582345750905 4.635098478314241 0 0 0
8 1 6.852814221091345 4.11553756283439 6.202340017983952 0 0 0
19 2 2.125557230678417 1.3862543219882464 10.80471051989603 0 0 0
20 2 0.5498046949373894 4.115537822811595 10.804710589962944 0 0 0
21 2 -1.0259478761159895 6.844821293337889 10.804710664602045 0 0 0
24 2 2.1255573243139443 6.8448213578447294 10.804710750295083 0 0 0
505 2 -2.601700426886577 9.574104863503546 10.804710745258497 0 0 0
36 2 3.70130908672415 7.754582259386376 7.769581438339279 0 0 0
508 2 0.5498047443808964 9.574104827603346 10.804710855115879 0 0 0
22 2 5.277062400656443 1.3862543923153103 10.804710602000503 0 0 0
27 2 5.277062475349552 6.844821418240396 10.804710886260976 0 0 0
32 2 2.1255564778945293 5.025298734210888 7.769581269246145 0 0 0
28 2 0.5498038804746146 2.296015215224611 7.769581100546428 0 0 0
511 2 3.701309925817884 9.574104889835844 10.80471099038831 0 0 0
35 2 5.277061571403154 5.0252987374657785 7.769581401174005 0 0 0
82 2 10.004319260128494 2.296015231504854 7.769581755301543 0 0 0
83 2 8.428566686831912 5.025298720263093 7.769581671583645 0 0 0
26 2 6.852815025523272 4.115537950627761 10.804710786628704 0 0 0
31 2 3.7013090050109136 2.2960151789506433 7.76958121882145 0 0 0
25 2 8.42856761875354 1.3862545128294368 10.804710723207037 0 0 0
23 2 3.701309857257934 4.115537901557806 10.804710653838969 0 0 0
30 2 -2.601701140294921 7.75458226733373 7.769581302579613 0 0 0
84 2 6.852814228318169 7.754582241356844 7.769581608885667 0 0 0
34 2 6.8528140673169595 2.2960151687256136 7.769581431127793 0 0 0
29 2 -1.0259486212267017 5.025298734993105 7.769581194964873 0 0 0
33 2 0.5498040021955131 7.754582228351198 7.769581356776144 0 0 0
37 2 2.125557227008101 1.3862542673205676 13.939193445052007 0 0 0
38 2 0.5498046677248274 4.115537724356416 13.939193537321428 0 0 0
39 2 -1.025947906447768 6.8448211968643395 13.939193585528196 0 0 0
42 2 2.1255572205137248 6.844821209145878 13.9391936994391 0 0 0
523 2 -2.6017004555351013 9.574104665532618 13.939193699568557 0 0 0
526 2 0.5498046543839008 9.574104631004442 13.939193808295716 0 0 0
4421 2 -1.0259468771042852 5.0252989058602004 16.974323121061282 0 0 0
4422 2 -2.6016994505919477 7.754582355140687 16.974323281031715 0 0 0
4424 2 2.1255581971133677 5.025298998491819 16.97432310169044 0 0 0
4425 2 0.5498056279664869 7.754582444531343 16.974323311110656 0 0 0
14 1 2.125557247383959 5.025298963759251 12.371952131254403 0 0 0
4420 2 0.5498057188627512 2.296015439829022 16.97432297706391 0 0 0
15 1 0.5498046859491197 7.754582418686072 12.371952204872532 0 0 0
529 2 3.7013098182689133 9.574104685596605 13.939193946778886 0 0 0
66 1 6.852814952186484 7.7545825598612526 12.371952505759218 0 0 0
4475 2 8.428568483604478 5.02529921147158 16.974323205079752 0 0 0
4426 2 6.8528159441884355 2.2960156509649736 16.97432288297076 0 0 0
41 2 3.7013097915086686 4.115537752101864 13.939193611561214 0 0 0
40 2 5.277062336512165 1.3862542845267933 13.939193515231548 0 0 0
4423 2 3.7013108014182845 2.2960155626298535 16.974322887275477 0 0 0
43 2 8.42856747881004 1.3862543605762614 13.939193641088002 0 0 0
44 2 6.852814911831961 4.115537769079431 13.93919374115677 0 0 0
45 2 5.2770623429206545 6.844821244365757 13.93919384029684 0 0 0
4427 2 5.277063343508884 5.025299145530243 16.974323107462006 0 0 0
18 1 3.701309845827689 7.754582457156825 12.371952335398115 0 0 0
4476 2 6.852815898962835 7.754582691843335 16.97432338379455 0 0 0
4428 2 3.7013107225062676 7.754582592396832 16.97432332896317 0 0 0
4474 2 10.00432110625545 2.296015712780356 16.974323019015568 0 0 0
65 1 8.428567524510067 5.025299065859413 12.371952406002682 0 0 0
11 1 -1.0259478965834608 5.025298904134576 12.371952068752963 0 0 0
17 1 5.277062399435294 5.025299004562349 12.371952240416789 0 0 0
64 1 10.004320130131042 2.296015637264601 12.37195233292974 0 0 0
13 1 3.7013097909650687 2.2960154988269323 12.371952030300617 0 0 0
16 1 6.852814958487471 2.2960155369278783 12.371952138967881 0 0 0
10 1 0.5498046477157472 2.29601544027604 12.371952002080299 0 0 0
12 1 -2.601700454489123 7.754582433730191 12.37195211031639 0 0 0
4402 2 0.5498058174663012 2.2960152734576376 20.108805932955118 0 0 0
4403 2 -1.0259468314305944 5.025298711179368 20.108806095024107 0 0 0
4404 2 -2.6016994446502237 7.754582169211836 20.10880621944378 0 0 0
4375 1 2.12555833286064 1.3862542369823643 18.5415643615211 0 0 0
4376 1 0.5498057176410551 4.115537685599746 18.541564560638477 0 0 0
4377 1 -1.0259468912694079 6.844821117878619 18.541564724673165 0 0 0
4406 2 2.1255582863450084 5.025298767390214 20.108806064564217 0 0 0
4407 2 0.5498056423098356 7.754582196894095 20.108806276783053 0 0 0
4380 1 2.1255582079336746 6.844821222231529 18.541564733882563 0 0 0
4864 1 0.549805640444899 9.5741046549326 18.541564952395962 0 0 0
4861 1 -2.6016994427125923 9.574104599349925 18.54156486509857 0 0 0
4456 2 10.004320960758943 2.296015455458657 20.108805946424624 0 0 0
4379 1 3.7013108243229493 4.115537786989906 18.541564495773166 0 0 0
4381 1 8.428568502162737 1.3862543969126582 18.541564324550322 0 0 0
4382 1 6.852815910334743 4.115537868725493 18.54156451706193 0 0 0
4378 1 5.277063429230204 1.3862543325888577 18.541564265662615 0 0 0
4867 1 3.701310722302452 9.574104793463382 18.54156498768805 0 0 0
4383 1 5.277063321804104 6.844821359480628 18.541564735016017 0 0 0
4410 2 3.701310743559562 7.754582338786283 20.108806282059767 0 0 0
4409 2 5.277063358576351 5.025298888736691 20.10880604819976 0 0 0
4405 2 3.7013109033293956 2.2960153464084145 20.10880585306469 0 0 0
4408 2 6.8528159224066245 2.296015414593275 20.108805852833964 0 0 0
4457 2 8.428568387682953 5.025298946884611 20.108806125173498 0 0 0
4458 2 6.852815849393175 7.754582429528908 20.108806316591174 0 0 0
4384 1 0.5498062778451394 2.296014942781008 24.71117661368387 0 0 0
4385 1 -1.0259462230461716 5.025298428880739 24.711176742189 0 0 0
4386 1 -2.6016987582520095 7.7545819063838 24.711176901514328 0 0 0
4393 2 2.125558853873613 1.3862538542545415 23.143935119466605 0 0 0
4394 2 0.5498063407458953 4.115537368456948 23.143935236839113 0 0 0
4395 2 -1.025946205705027 6.844820853925032 23.14393538284101 0 0 0
4388 1 2.125558884658134 5.025298476758995 24.711176763582763 0 0 0
4389 1 0.5498063636651693 7.754581950616852 24.71117689055205 0 0 0
4398 2 2.125558940155237 6.844820912101851 23.143935387811794 0 0 0
4882 2 0.5498063572325647 9.57410442067114 23.143935568763034 0 0 0
4885 2 3.701311470273133 9.574104460935553 23.143935589457453 0 0 0
4879 2 -2.6016987296579077 9.57410436600786 23.14393558181805 0 0 0
4439 1 8.428569039542705 5.025298507667291 24.71117695738409 0 0 0
4396 2 5.277063960860763 1.3862538734277683 23.143935163173655 0 0 0
4391 1 5.277063955176535 5.025298491270783 24.71117685595601 0 0 0
4438 1 10.00432157300135 2.2960150249333644 24.71117681186187 0 0 0
4440 1 6.852816532641065 7.7545820160424475 24.71117707419591 0 0 0
4399 2 8.428569074294074 1.3862539098691549 23.143935227569067 0 0 0
4397 2 3.701311447622695 4.115537387275122 23.14393530512582 0 0 0
4390 1 6.852816490488138 2.296014956422802 24.71117672072108 0 0 0
4400 2 6.852816536713263 4.115537413777339 23.14393537815764 0 0 0
4392 1 3.7013114613641394 7.754582008320912 24.711176925380297 0 0 0
4387 1 3.701311393531338 2.2960149394484177 24.711176661549906 0 0 0
4401 2 5.277064049343087 6.844820915053859 23.143935476826748 0 0 0
8794 2 0.549806545129073 2.296014380712107 29.313547342665167 0 0 0
8795 2 -1.025946028076461 5.025297892497666 29.313547496521565 0 0 0
8796 2 -2.601698563801416 7.75458148790346 29.313547644412402 0 0 0
8798 2 2.1255591229460618 5.025297926687465 29.313547518350425 0 0 0
8799 2 0.5498065686277407 7.754581453178359 29.31354764125416 0 0 0
8849 2 8.428569380192961 5.025298009243634 29.313547801736554 0 0 0
4419 2 5.2770639298140685 6.844820733446541 26.278418417866437 0 0 0
4903 2 3.7013114305421873 9.574104194962944 26.278418525259532 0 0 0
4900 2 0.549806372178705 9.574104162740088 26.278418496052993 0 0 0
4416 2 2.125558919296755 6.844820727775489 26.27841832644548 0 0 0
8801 2 5.277064257363728 5.025297958277551 29.313547624329267 0 0 0
8848 2 10.00432198991195 2.2960144958187536 29.31354769619088 0 0 0
8800 2 6.852816844792631 2.296014490778683 29.313547495266935 0 0 0
8850 2 6.852816799634824 7.754581498517017 29.313547912607863 0 0 0
8802 2 3.7013116899966834 7.754581487977692 29.313547745752118 0 0 0
8797 2 3.701311690720552 2.2960144292799143 29.31354738884467 0 0 0
4412 2 0.5498063409599689 4.115537195921084 26.27841817499982 0 0 0
4411 2 2.125558814323839 1.3862536627331528 26.278418046159167 0 0 0
4418 2 6.852816451848053 4.1155372040829965 26.27841831510493 0 0 0
4417 2 8.428569008556531 1.3862537274563027 26.278418194843496 0 0 0
4415 2 3.701311373194742 4.1155372157121075 26.278418228180723 0 0 0
4414 2 5.277063907851487 1.3862536772502803 26.27841810904904 0 0 0
4413 2 -1.0259461767647524 6.844820650714981 26.278418310328632 0 0 0
4897 2 -2.6016987370742273 9.574104128354616 26.27841851165639 0 0 0
8776 2 0.549806577643531 2.2960141827152865 32.44803029340881 0 0 0
8777 2 -1.025946023976246 5.025297742224405 32.44803043708315 0 0 0
8778 2 -2.601698545622403 7.754581231754274 32.448030601784886 0 0 0
8780 2 2.1255590740709898 5.02529772940784 32.44803047117381 0 0 0
8781 2 0.5498065309011348 7.754581223367666 32.4480306166885 0 0 0
9238 1 0.5498065324886925 9.574103667804536 30.880789269279315 0 0 0
8772 2 2.1255591061962336 6.844819199021775 35.48316005978367 0 0 0
8749 1 2.1255591163975804 1.3862531202742463 30.880788749643344 0 0 0
8768 2 0.5498067031483194 4.115535599695475 35.483159765341355 0 0 0
8767 2 2.125559411272696 1.3862520925466544 35.48315959258859 0 0 0
8769 2 -1.0259460020954685 6.844819107817445 35.483159986598665 0 0 0
8754 1 2.1255590880395525 6.844820165047296 30.88078909074878 0 0 0
9241 1 3.7013116250824725 9.574103678440284 30.88078937783186 0 0 0
8757 1 5.2770641768288495 6.844820186237048 30.880789207938317 0 0 0
8831 2 8.428569222029925 5.025297762897746 32.44803076062479 0 0 0
8784 2 3.70131158897951 7.754581216523309 32.448030697159695 0 0 0
8779 2 3.7013116561283756 2.2960141952273356 32.448030334507315 0 0 0
8830 2 10.00432179823891 2.2960142564624055 32.448030656059814 0 0 0
8770 2 5.277064581560611 1.386252173852566 35.48315967277956 0 0 0
8783 2 5.277064158349599 5.025297747227975 32.44803056959546 0 0 0
8782 2 6.852816713856191 2.296014224439755 32.44803045126869 0 0 0
8774 2 6.852817004753473 4.115535723041604 35.48316004837562 0 0 0
8775 2 5.2770642730242425 6.844819245732462 35.483160242157126 0 0 0
8832 2 6.852816640695651 7.754581224762031 32.44803086234917 0 0 0
9253 2 -2.601698669652352 9.574102636419935 35.48316019491995 0 0 0
8773 2 8.428569672498666 1.3862522327614109 35.483159850208615 0 0 0
9259 2 3.7013115190699946 9.574102728508384 35.48316045105697 0 0 0
9256 2 0.549806429411988 9.574102697182658 35.48316032086237 0 0 0
8771 2 3.701311886589764 4.115535700334214 35.48315985330907 0 0 0
9235 1 -2.60169857135164 9.574103708610865 30.880789262848207 0 0 0
8751 1 -1.0259459939117113 6.844820165453346 30.880789049803486 0 0 0
8750 1 0.549806537981802 4.115536630785238 30.880788910989704 0 0 0
8752 1 5.27706423327429 1.386253166465111 30.88078882705786 0 0 0
8753 1 3.701311660895915 4.1155366588808455 30.880788970929615 0 0 0
8755 1 8.428569333033781 1.3862531902302995 30.880788987964277 0 0 0
8756 1 6.852816776148627 4.115536693032687 30.880789109266694 0 0 0
8758 1 0.549806811744644 2.2960131295536264 37.05040112165908 0 0 0
8759 1 -1.0259459052149766 5.0252966296749655 37.05040131679264 0 0 0
8760 1 -2.6016986241976845 7.754580122586243 37.05040150226544 0 0 0
8785 2 2.1255593830839796 1.38625184358283 38.6176425366407 0 0 0
8786 2 0.5498066807166979 4.115535352587477 38.61764272043025 0 0 0
8787 2 -1.025946080464351 6.844818834401158 38.61764294234417 0 0 0
8762 1 2.125559186326977 5.0252966808810475 37.050401338335156 0 0 0
8763 1 0.5498064674095797 7.75458016373629 37.05040159120936 0 0 0
8790 2 2.1255589953306044 6.844818838656358 38.61764301656369 0 0 0
9274 2 0.5498062571055398 9.574102325957409 38.617643275416896 0 0 0
8814 1 6.852816704967665 7.754580260651307 37.05040191346384 0 0 0
9271 2 -2.601698819966243 9.57410233649698 38.61764312107728 0 0 0
8764 1 6.85281700953697 2.2960132233382105 37.050401331948414 0 0 0
8788 2 5.277064415217922 1.386251875935947 38.617642629287694 0 0 0
8761 1 3.701311915279816 2.296013185670552 37.05040115512954 0 0 0
8813 1 8.42856940368373 5.025296756808967 37.050401729171924 0 0 0
9277 2 3.7013113801576543 9.574102355539635 38.617643401376846 0 0 0
8789 2 3.7013117156689863 4.115535362799392 38.61764280511965 0 0 0
8793 2 5.277064079383604 6.844818906365615 38.617643181219016 0 0 0
8766 1 3.7013115756925465 7.754580211184649 37.05040171714161 0 0 0
8791 2 8.428569485279162 1.3862519272411147 38.617642812439215 0 0 0
8792 2 6.852816813712522 4.115535388661263 38.617643013401505 0 0 0
8765 1 5.277064324034562 5.025296724683057 37.050401523715024 0 0 0
8812 1 10.004322088643232 2.2960132934108453 37.050401522884776 0 0 0
13168 2 0.5498066407966145 2.2960124140890223 41.65277202561556 0 0 0
13169 2 -1.0259460078627944 5.025295959453839 41.652772197861545 0 0 0
13170 2 -2.6016986799808377 7.7545794728774 41.65277242544699 0 0 0
13123 1 2.1255591620011876 1.3862511208401274 43.22001347914926 0 0 0
13124 1 0.5498065070461364 4.11553464317744 43.220013653286976 0 0 0
13125 1 -1.0259461658614866 6.84481816382369 43.22001386166703 0 0 0
13172 2 2.1255590647686624 5.025295972022323 41.65277228342874 0 0 0
13173 2 0.5498063732526326 7.7545795346080935 41.65277251821208 0 0 0
13128 1 2.1255588923753232 6.844818173326275 43.22001394088886 0 0 0
13609 1 -2.6016988126992424 9.574101673233553 43.22001410415628 0 0 0
13612 1 0.5498062159627253 9.574101693256077 43.22001420830908 0 0 0
13224 2 6.852816552373383 7.754579427034684 41.65277271800421 0 0 0
13222 2 10.004321927977768 2.296012438423717 41.65277244324425 0 0 0
13223 2 8.428569265915405 5.02529595881094 41.65277254375349 0 0 0
13615 1 3.7013112859420847 9.574101639296037 43.220014271251884 0 0 0
13176 2 3.7013114629911597 7.754579471206139 41.652772583236526 0 0 0
13129 1 8.428569294130314 1.386251149235388 43.22001374557481 0 0 0
13127 1 3.7013115626113584 4.11553463212381 43.2200137515007 0 0 0
13171 2 3.7013117162408316 2.296012435801476 41.652772105808765 0 0 0
13131 1 5.277063965398776 6.844818105699593 43.22001404725961 0 0 0
13130 1 6.8528166656456335 4.1155346360142495 43.22001387911995 0 0 0
13174 2 6.852816831421958 2.2960124386194245 41.6527722386972 0 0 0
13175 2 5.2770641557066025 5.025295912426696 41.65277241286755 0 0 0
13126 1 5.277064220595212 1.386251133161272 43.220013557832324 0 0 0
13141 2 2.1255585091328135 1.3862509526738966 47.82238459253026 0 0 0
13142 2 0.5498058668335672 4.11553441754433 47.822384799933175 0 0 0
13143 2 -1.0259467667268485 6.8448178890555385 47.822384957737015 0 0 0
13146 2 2.125558373396087 6.844817977663892 47.8223850905507 0 0 0
13630 2 0.549805683200935 9.574101455898246 47.82238527399023 0 0 0
13150 2 0.5498065867262503 2.2960122139903865 44.78725503053822 0 0 0
13627 2 -2.601699427868802 9.574101427559581 47.82238513049176 0 0 0
13633 2 3.7013108022480825 9.574101481937003 47.82238545304917 0 0 0
13154 2 2.1255589507707295 5.025295702294056 44.787255276822165 0 0 0
13206 2 6.852816393536888 7.754579114044448 44.78725570785488 0 0 0
13205 2 8.428569094997513 5.025295675084421 44.78725554950988 0 0 0
13157 2 5.277064022856356 5.0252956427067295 44.78725539173313 0 0 0
13147 2 8.42856877577359 1.3862509534413126 47.82238495485429 0 0 0
13149 2 5.27706344421447 6.844817973140315 47.822385258054865 0 0 0
13156 2 6.852816643194862 2.296012185492736 44.787255236926995 0 0 0
13153 2 3.701311623911568 2.296012159375508 44.787255091862534 0 0 0
13204 2 10.004321697376426 2.2960122317086493 44.78725542579232 0 0 0
13145 2 3.7013110046547313 4.115534469458379 47.82238489347724 0 0 0
13144 2 5.2770636399856805 1.3862509406876735 47.82238474291091 0 0 0
13148 2 6.852816080305754 4.115534461267834 47.82238507667765 0 0 0
13158 2 3.701311341060064 7.7545791445548335 44.78725558790581 0 0 0
13155 2 0.5498062736271931 7.7545792039354895 44.78725549557413 0 0 0
13152 2 -2.6016987709541555 7.754579177452458 44.787255398060886 0 0 0
13151 2 -1.0259460865004413 5.025295679725269 44.787255183766035 0 0 0
13159 2 2.1255584021706646 1.386250705466058 50.95686758419793 0 0 0
13160 2 0.5498057742041889 4.115534185876971 50.95686773908462 0 0 0
13161 2 -1.025946886685217 6.8448176758132675 50.95686790620661 0 0 0
13164 2 2.1255581988057703 6.84481767245449 50.95686799620825 0 0 0
17544 2 -2.601700059827601 7.754578936720003 53.991997321148105 0 0 0
13136 1 2.1255583469774035 5.025295481505651 49.38962637582855 0 0 0
13648 2 0.5498055115399794 9.57410116113526 50.95686821446031 0 0 0
13137 1 0.549805694687902 7.754578966879408 49.38962656523967 0 0 0
17547 2 0.5498050849049907 7.75457890776133 53.99199739469187 0 0 0
13132 1 0.5498058832271826 2.2960119624025745 49.389626128698985 0 0 0
13651 2 3.7013106490239416 9.574101224934251 50.95686838469041 0 0 0
13163 2 3.701310813337631 4.11553419329831 50.95686785355267 0 0 0
13162 2 5.2770634602732756 1.38625071511525 50.956867717903364 0 0 0
13166 2 6.8528158828925765 4.115534200234809 50.956868050034394 0 0 0
13165 2 8.428568535909129 1.3862506955037315 50.95686790741 0 0 0
13167 2 5.2770632802931505 6.844817701552659 50.956868195100725 0 0 0
13135 1 3.701310981460553 2.296011999641073 49.38962621324459 0 0 0
17550 2 3.7013102377227076 7.754578902713526 53.991997500448875 0 0 0
13645 2 -2.6016995512148986 9.574101169910893 50.95686808568223 0 0 0
17542 2 0.5498052706904519 2.29601185521448 53.99199696290746 0 0 0
17543 2 -1.0259474023363093 5.025295395246217 53.99199714633697 0 0 0
17546 2 2.1255577676351085 5.02529537437136 53.99199722530693 0 0 0
17549 2 5.277062916000535 5.025295356883891 53.99199737140037 0 0 0
17598 2 6.852815433078532 7.754578850260104 53.991997735467365 0 0 0
17548 2 6.852815525587159 2.296011765720806 53.99199733912267 0 0 0
17545 2 3.7013103972882826 2.296011824782282 53.991997090816916 0 0 0
17596 2 10.00432067356847 2.296011702063181 53.991997749284515 0 0 0
17597 2 8.428568085110102 5.025295256940716 53.991997703789146 0 0 0
13133 1 -1.0259467626785435 5.025295452362035 49.389626309102574 0 0 0
13134 1 -2.6016993928516197 7.754578959056678 49.38962645876295 0 0 0
13140 1 3.70131080213556 7.754579024961185 49.38962674467858 0 0 0
13187 1 8.428568520982893 5.025295477286122 49.389626757914144 0 0 0
13186 1 10.004321196529887 2.296011955141092 49.38962662949079 0 0 0
13138 1 6.85281607545769 2.2960120036144254 49.38962639920787 0 0 0
13139 1 5.277063428856592 5.025295499162155 49.3896265611896 0 0 0
13188 1 6.852815903537539 7.754578990983809 49.389626905250275 0 0 0
17524 2 0.5498051463521529 2.296011655375633 57.12647989420744 0 0 0
17525 2 -1.0259474506218047 5.025295180999647 57.12648005735749 0 0 0
17526 2 -2.601700110527803 7.7545787692624275 57.12648023889445 0 0 0
17497 1 2.1255577578587133 1.3862505521969317 55.55923840186345 0 0 0
17498 1 0.5498051522454173 4.115534096644191 55.55923854061761 0 0 0
17499 1 -1.025947509864149 6.844817640684733 55.559238740294646 0 0 0
17528 2 2.125557616652879 5.025295161482722 57.12648012740337 0 0 0
17529 2 0.5498049770112408 7.754578696936679 57.12648032242744 0 0 0
17502 1 2.1255576130699705 6.844817614396312 55.55923882397347 0 0 0
17986 1 0.5498049330224948 9.574101141098883 55.55923898972407 0 0 0
17983 1 -2.6017002169867873 9.574101175330847 55.559238873413626 0 0 0
17579 2 8.428567677401375 5.025295075286957 57.126480642841194 0 0 0
17580 2 6.852815124001447 7.75457859759835 57.12648068548785 0 0 0
17532 2 3.7013100485117025 7.754578656045129 57.12648044073246 0 0 0
17989 1 3.701310073257601 9.574101109755107 55.559239140125136 0 0 0
17531 2 5.277062676511678 5.025295155577075 57.12648031130495 0 0 0
17501 1 3.7013102601198233 4.115534073974988 55.559238675212846 0 0 0
17504 1 6.852815337413025 4.115534033799882 55.55923890965726 0 0 0
17500 1 5.277062837544483 1.3862504993747846 55.55923858547735 0 0 0
17578 2 10.00432023642622 2.2960115376062467 57.12648070611768 0 0 0
17527 2 3.7013102040761425 2.296011632835599 57.126480012682805 0 0 0
17530 2 6.852815192038587 2.296011603263877 57.12648026624917 0 0 0
17505 1 5.277062722465872 6.844817590781406 55.55923897631472 0 0 0
17503 1 8.428567914674927 1.3862504634214243 55.559238938739846 0 0 0
17506 1 0.5498041081161136 2.296011922305445 61.72885064988487 0 0 0
17507 1 -1.025948477321764 5.025295500332675 61.72885076052628 0 0 0
17508 1 -2.60170106391487 7.7545791112587885 61.7288508938574 0 0 0
17515 2 2.12555675029357 1.386250842085146 60.161609175471625 0 0 0
17516 2 0.5498041696017015 4.115534376339511 60.16160932299352 0 0 0
17517 2 -1.0259484488786135 6.844817956753238 60.16160942909419 0 0 0
17510 1 2.125556605708456 5.025295453484237 61.72885096010752 0 0 0
17511 1 0.5498040294594775 7.75457904587404 61.72885101487051 0 0 0
17520 2 2.12555669075148 6.844817895555545 60.161609610469085 0 0 0
18001 2 -2.601701074994822 9.574101568496204 60.161609568273406 0 0 0
18004 2 0.5498040713992074 9.574101495338388 60.161609678122666 0 0 0
17561 1 8.428566803078793 5.025295543965664 61.72885155757561 0 0 0
17560 1 10.004319425428049 2.2960120195537974 61.72885158780154 0 0 0
17562 1 6.852814176076691 7.7545790393185365 61.72885154231752 0 0 0
18007 2 3.7013091580442588 9.574101447253964 60.161609904076904 0 0 0
17522 2 6.8528144560669375 4.115534446976335 60.1616098355899 0 0 0
17514 1 3.701309094012129 7.754579001503538 61.72885127683167 0 0 0
17523 2 5.277061808945017 6.844817897014888 60.16160988883157 0 0 0
17513 1 5.277061701783852 5.02529545759637 61.72885121937659 0 0 0
17509 1 3.7013092092911766 2.2960119178705525 61.728850805147836 0 0 0
17519 2 3.7013092917768984 4.115534374984802 60.16160953167716 0 0 0
17518 2 5.277061950210729 1.3862508833081113 60.16160940190205 0 0 0
17521 2 8.428567112578202 1.3862509283903302 60.16160980438038 0 0 0
17512 1 6.852814328820205 2.2960119738204297 61.72885112388898 0 0 0
21916 2 0.5498036450263188 2.2960130302229587 66.3312213653605 0 0 0
21917 2 -1.0259489203071126 5.025296615434331 66.33122144147316 0 0 0
21918 2 -2.601701520472953 7.754580154899439 66.33122163630759 0 0 0
21920 2 2.12555628021658 5.025296623185843 66.33122152663417 0 0 0
21921 2 0.5498036440525453 7.754580165433809 66.33122165511644 0 0 0
17533 2 2.1255565641979457 1.3862506179028116 63.29609210682043 0 0 0
17534 2 0.5498039560377546 4.115534186550899 63.29609224840049 0 0 0
21971 2 8.428566676157212 5.025296602906512 66.33122214050411 0 0 0
21970 2 10.004319301910568 2.296013100261912 66.33122228184268 0 0 0
18025 2 3.7013089063277107 9.574101286458857 63.296092852378514 0 0 0
17536 2 5.277061631447798 1.3862506593855841 63.296092349921636 0 0 0
17541 2 5.277061522405093 6.84481772707673 63.29609280956533 0 0 0
21972 2 6.85281402514894 7.754580162207467 66.33122210803519 0 0 0
17540 2 6.852814122300956 4.115534196875231 63.2960927684932 0 0 0
21924 2 3.7013088472901154 7.754580191057884 66.33122181171595 0 0 0
21919 2 3.7013088668060234 2.2960130464231474 66.33122149102041 0 0 0
21923 2 5.277061494757538 5.025296608775089 66.33122173513902 0 0 0
17537 2 3.7013090430139837 4.11553413167028 63.29609245490813 0 0 0
21922 2 6.852814086763878 2.2960130322663956 66.33122178017345 0 0 0
17539 2 8.428566687358998 1.38625068696834 63.296092744905906 0 0 0
17535 2 -1.0259485918842741 6.844817790119157 63.29609232229577 0 0 0
18022 2 0.5498038796224058 9.574101317723766 63.29609260616015 0 0 0
18019 2 -2.601701130403791 9.574101355500474 63.29609248276618 0 0 0
17538 2 2.1255564368159776 6.8448177295528865 63.296092555986945 0 0 0
21898 2 0.5498035963037498 2.296013021771336 69.46570429252004 0 0 0
21899 2 -1.0259489168341012 5.025296504876261 69.4657043752136 0 0 0
21900 2 -2.6017014879449896 7.754579991047815 69.46570454807302 0 0 0
21902 2 2.1255561364363507 5.025296531502704 69.46570444072398 0 0 0
21903 2 0.549803562720057 7.754580014147665 69.46570456863085 0 0 0
22378 2 0.5498037908141518 9.574103755902996 72.50083406917508 0 0 0
21871 1 2.1255561919343307 1.386251864986455 67.89846284540133 0 0 0
22360 1 0.549803605972321 9.574102422434402 67.89846325872911 0 0 0
21891 2 -1.0259487590291867 6.844820203472645 72.50083392978918 0 0 0
21894 2 2.125556466268234 6.844820287408732 72.50083401691411 0 0 0
21890 2 0.5498039175920932 4.1155367267902 72.50083390006736 0 0 0
22375 2 -2.601701415343311 9.574103702370548 72.50083404359714 0 0 0
21889 2 2.1255565643799894 1.386253283664748 72.50083394629564 0 0 0
21872 1 0.5498036415140333 4.115535383601374 67.89846287857506 0 0 0
21876 1 2.1255561897481874 6.844818924232416 67.89846310160281 0 0 0
21952 2 10.004318797101979 2.2960130224150053 69.46570523350535 0 0 0
21904 2 6.852813733933569 2.2960130056635393 69.46570473815214 0 0 0
21901 2 3.701308661883851 2.2960130235878804 69.4657044343434 0 0 0
21874 1 5.277061314850172 1.3862518690470012 67.8984630487249 0 0 0
21906 2 3.7013086505861184 7.754580030450964 69.46570472634102 0 0 0
21953 2 8.428566219767992 5.025296518125777 69.46570509066929 0 0 0
21905 2 5.27706121647476 5.0252965002395475 69.46570468134428 0 0 0
21877 1 8.428566481330563 1.3862518759463658 67.89846343996379 0 0 0
21878 1 6.852813903345701 4.115535357778161 67.8984633144189 0 0 0
21893 2 3.7013091173297625 4.115536803179988 72.50083407537113 0 0 0
21897 2 5.277061653569737 6.844820364734889 72.50083421077261 0 0 0
22363 1 3.7013087100792523 9.574102449057841 67.89846340831195 0 0 0
21954 2 6.852813664105702 7.754580023748419 69.46570504671328 0 0 0
21896 2 6.8528142706535045 4.1155368439344215 72.50083436324178 0 0 0
22381 2 3.7013089956883443 9.574103859573006 72.50083422278016 0 0 0
21895 2 8.428566903486299 1.3862533789324778 72.50083448273504 0 0 0
21892 2 5.277061741387121 1.3862533236591639 72.50083419189836 0 0 0
22357 1 -2.6017015096075067 9.574102418290991 67.89846321442485 0 0 0
21873 1 -1.025948950718242 6.84481890509959 67.89846301493695 0 0 0
21879 1 5.27706131393715 6.84481889849732 67.8984633228146 0 0 0
21875 1 3.7013087793401658 4.115535396100675 67.89846301836876 0 0 0
21880 1 0.5498038898509121 2.2960143888767712 74.06807534175394 0 0 0
21881 1 -1.0259487365894528 5.02529784728627 74.06807535144203 0 0 0
21882 1 -2.6017013636084325 7.7545813113269935 74.06807542081523 0 0 0
21907 2 2.125556372628384 1.386253257933999 75.63531689243233 0 0 0
21908 2 0.5498038071144338 4.115536712969357 75.63531685528568 0 0 0
21909 2 -1.025948791680956 6.844820156371615 75.63531687429055 0 0 0
21884 1 2.125556422380804 5.025297931582549 74.06807546324721 0 0 0
21885 1 0.549803802393714 7.754581376753382 74.06807545379343 0 0 0
21912 2 2.125556331563064 6.84482026288546 75.63531698233054 0 0 0
22396 2 0.5498037156528088 9.574103671760854 75.63531699495962 0 0 0
22393 2 -2.6017013766892583 9.574103621577839 75.63531694587539 0 0 0
21935 1 8.428566711963699 5.025298049148525 74.06807598504606 0 0 0
21934 1 10.004319300882717 2.296014562033058 74.06807615282459 0 0 0
21910 2 5.277061491516791 1.3862532915155215 75.63531714186068 0 0 0
21913 2 8.428566615803117 1.3862533390337315 75.63531742082218 0 0 0
21888 1 3.701308963282562 7.7545814874962895 74.06807559606685 0 0 0
21887 1 5.277061563667976 5.025298024977072 74.06807568230028 0 0 0
21886 1 6.852814170540406 2.2960145170178503 74.06807583455847 0 0 0
21914 2 6.852813996355961 4.11553687411942 75.63531731460583 0 0 0
21911 2 3.701308920310012 4.115536833280077 75.6353170423557 0 0 0
21883 1 3.70130903511369 2.29601447291469 74.06807555147076 0 0 0
21915 2 5.277061464598365 6.844820377701371 75.63531717017511 0 0 0
21936 1 6.8528141250548575 7.754581548173631 74.06807582631443 0 0 0
22399 2 3.7013088401273135 9.57410378551935 75.63531716298155 0 0 0
532 2 -4.17745369893872 10.483865953231712 4.63509854897945 0 0 0
533 2 -5.753206291772369 13.213149456486672 4.635098780661285 0 0 0
534 2 -7.328958936305014 15.942433009670866 4.635099080044689 0 0 0